<?xml version="1.0" encoding="UTF-8"?>

<!-- generated on 2025-08-25 19:44:27 by Eclipse SUMO sumo Version 1.24.0
<sumoConfiguration xmlns:xsi="http://www.w3.org/2001/XMLSchema-instance" xsi:noNamespaceSchemaLocation="http://sumo.dlr.de/xsd/sumoConfiguration.xsd">

    <input>
        <net-file value="grid.net.xml"/>
        <route-files value="grid.rou.xml"/>
    </input>

    <output>
        <fcd-output value="fcd-output.xml"/>
        <tripinfo-output value="tripinfo.xml"/>
    </output>

    <time>
        <begin value="0"/>
        <end value="1000"/>
    </time>

</sumoConfiguration>
-->

<fcd-export xmlns:xsi="http://www.w3.org/2001/XMLSchema-instance" xsi:noNamespaceSchemaLocation="http://sumo.dlr.de/xsd/fcd_file.xsd">
    <timestep time="0.00">
        <vehicle id="0" x="612.30" y="-1.60" angle="90.00" type="DEFAULT_VEHTYPE" speed="0.00" pos="5.10" lane="D0E0_0" slope="0.00"/>
    </timestep>
    <timestep time="1.00">
        <vehicle id="0" x="614.55" y="-1.60" angle="90.00" type="DEFAULT_VEHTYPE" speed="2.25" pos="7.35" lane="D0E0_0" slope="0.00"/>
    </timestep>
    <timestep time="2.00">
        <vehicle id="0" x="619.27" y="-1.60" angle="90.00" type="DEFAULT_VEHTYPE" speed="4.72" pos="12.07" lane="D0E0_0" slope="0.00"/>
    </timestep>
    <timestep time="3.00">
        <vehicle id="0" x="625.33" y="-1.60" angle="90.00" type="DEFAULT_VEHTYPE" speed="6.06" pos="18.13" lane="D0E0_0" slope="0.00"/>
    </timestep>
    <timestep time="4.00">
        <vehicle id="0" x="632.81" y="-1.60" angle="90.00" type="DEFAULT_VEHTYPE" speed="7.48" pos="25.61" lane="D0E0_0" slope="0.00"/>
    </timestep>
    <timestep time="5.00">
        <vehicle id="0" x="641.83" y="-1.60" angle="90.00" type="DEFAULT_VEHTYPE" speed="9.01" pos="34.63" lane="D0E0_0" slope="0.00"/>
    </timestep>
    <timestep time="6.00">
        <vehicle id="0" x="652.20" y="-1.60" angle="90.00" type="DEFAULT_VEHTYPE" speed="10.38" pos="45.00" lane="D0E0_0" slope="0.00"/>
    </timestep>
    <timestep time="7.00">
        <vehicle id="0" x="664.81" y="-1.60" angle="90.00" type="DEFAULT_VEHTYPE" speed="12.61" pos="57.61" lane="D0E0_0" slope="0.00"/>
    </timestep>
    <timestep time="8.00">
        <vehicle id="0" x="678.76" y="-1.60" angle="90.00" type="DEFAULT_VEHTYPE" speed="13.95" pos="71.56" lane="D0E0_0" slope="0.00"/>
    </timestep>
    <timestep time="9.00">
        <vehicle id="0" x="692.93" y="-1.60" angle="90.00" type="DEFAULT_VEHTYPE" speed="14.17" pos="85.73" lane="D0E0_0" slope="0.00"/>
    </timestep>
    <timestep time="10.00">
        <vehicle id="0" x="707.07" y="-1.60" angle="90.00" type="DEFAULT_VEHTYPE" speed="14.14" pos="99.87" lane="D0E0_0" slope="0.00"/>
    </timestep>
    <timestep time="11.00">
        <vehicle id="0" x="720.82" y="-1.60" angle="90.00" type="DEFAULT_VEHTYPE" speed="13.75" pos="113.62" lane="D0E0_0" slope="0.00"/>
    </timestep>
    <timestep time="12.00">
        <vehicle id="0" x="734.80" y="-1.60" angle="90.00" type="DEFAULT_VEHTYPE" speed="13.98" pos="127.60" lane="D0E0_0" slope="0.00"/>
    </timestep>
    <timestep time="13.00">
        <vehicle id="0" x="748.45" y="-1.60" angle="90.00" type="DEFAULT_VEHTYPE" speed="13.65" pos="141.25" lane="D0E0_0" slope="0.00"/>
    </timestep>
    <timestep time="14.00">
        <vehicle id="0" x="762.96" y="-1.60" angle="90.00" type="DEFAULT_VEHTYPE" speed="14.51" pos="155.76" lane="D0E0_0" slope="0.00"/>
    </timestep>
    <timestep time="15.00">
        <vehicle id="0" x="777.44" y="-1.60" angle="90.00" type="DEFAULT_VEHTYPE" speed="14.48" pos="170.24" lane="D0E0_0" slope="0.00"/>
    </timestep>
    <timestep time="16.00">
        <vehicle id="0" x="788.42" y="-1.60" angle="90.00" type="DEFAULT_VEHTYPE" speed="10.98" pos="181.22" lane="D0E0_0" slope="0.00"/>
    </timestep>
    <timestep time="17.00">
        <vehicle id="0" x="796.55" y="-1.60" angle="90.00" type="DEFAULT_VEHTYPE" speed="8.13" pos="189.35" lane="D0E0_0" slope="0.00"/>
    </timestep>
    <timestep time="18.00">
        <vehicle id="0" x="801.14" y="0.83" angle="59.38" type="DEFAULT_VEHTYPE" speed="5.56" pos="5.31" lane=":E0_1_0" slope="0.00"/>
    </timestep>
    <timestep time="19.00">
        <vehicle id="0" x="801.60" y="6.34" angle="3.02" type="DEFAULT_VEHTYPE" speed="5.57" pos="3.14" lane="E0E1_0" slope="0.00"/>
    </timestep>
    <timestep time="20.00">
        <vehicle id="0" x="801.60" y="14.11" angle="0.00" type="DEFAULT_VEHTYPE" speed="7.77" pos="10.91" lane="E0E1_0" slope="0.00"/>
        <vehicle id="1" x="201.60" y="412.30" angle="0.00" type="DEFAULT_VEHTYPE" speed="0.00" pos="5.10" lane="B2B3_0" slope="0.00"/>
    </timestep>
    <timestep time="21.00">
        <vehicle id="0" x="801.60" y="23.90" angle="0.00" type="DEFAULT_VEHTYPE" speed="9.79" pos="20.70" lane="E0E1_0" slope="0.00"/>
        <vehicle id="1" x="201.60" y="413.84" angle="0.00" type="DEFAULT_VEHTYPE" speed="1.54" pos="6.64" lane="B2B3_0" slope="0.00"/>
    </timestep>
    <timestep time="22.00">
        <vehicle id="0" x="801.60" y="36.28" angle="0.00" type="DEFAULT_VEHTYPE" speed="12.38" pos="33.08" lane="E0E1_0" slope="0.00"/>
        <vehicle id="1" x="201.60" y="416.79" angle="0.00" type="DEFAULT_VEHTYPE" speed="2.95" pos="9.59" lane="B2B3_0" slope="0.00"/>
    </timestep>
    <timestep time="23.00">
        <vehicle id="0" x="801.60" y="50.58" angle="0.00" type="DEFAULT_VEHTYPE" speed="14.30" pos="47.38" lane="E0E1_0" slope="0.00"/>
        <vehicle id="1" x="201.60" y="421.77" angle="0.00" type="DEFAULT_VEHTYPE" speed="4.99" pos="14.57" lane="B2B3_0" slope="0.00"/>
    </timestep>
    <timestep time="24.00">
        <vehicle id="0" x="801.60" y="64.64" angle="0.00" type="DEFAULT_VEHTYPE" speed="14.06" pos="61.44" lane="E0E1_0" slope="0.00"/>
        <vehicle id="1" x="201.60" y="428.33" angle="0.00" type="DEFAULT_VEHTYPE" speed="6.55" pos="21.13" lane="B2B3_0" slope="0.00"/>
    </timestep>
    <timestep time="25.00">
        <vehicle id="0" x="801.60" y="79.06" angle="0.00" type="DEFAULT_VEHTYPE" speed="14.42" pos="75.86" lane="E0E1_0" slope="0.00"/>
        <vehicle id="1" x="201.60" y="436.60" angle="0.00" type="DEFAULT_VEHTYPE" speed="8.28" pos="29.40" lane="B2B3_0" slope="0.00"/>
    </timestep>
    <timestep time="26.00">
        <vehicle id="0" x="801.60" y="92.71" angle="0.00" type="DEFAULT_VEHTYPE" speed="13.65" pos="89.51" lane="E0E1_0" slope="0.00"/>
        <vehicle id="1" x="201.60" y="446.62" angle="0.00" type="DEFAULT_VEHTYPE" speed="10.02" pos="39.42" lane="B2B3_0" slope="0.00"/>
    </timestep>
    <timestep time="27.00">
        <vehicle id="0" x="801.60" y="106.60" angle="0.00" type="DEFAULT_VEHTYPE" speed="13.88" pos="103.40" lane="E0E1_0" slope="0.00"/>
        <vehicle id="1" x="201.60" y="458.94" angle="0.00" type="DEFAULT_VEHTYPE" speed="12.32" pos="51.74" lane="B2B3_0" slope="0.00"/>
    </timestep>
    <timestep time="28.00">
        <vehicle id="0" x="801.60" y="120.81" angle="0.00" type="DEFAULT_VEHTYPE" speed="14.21" pos="117.61" lane="E0E1_0" slope="0.00"/>
        <vehicle id="1" x="201.60" y="471.63" angle="0.00" type="DEFAULT_VEHTYPE" speed="12.69" pos="64.43" lane="B2B3_0" slope="0.00"/>
    </timestep>
    <timestep time="29.00">
        <vehicle id="0" x="801.60" y="135.52" angle="0.00" type="DEFAULT_VEHTYPE" speed="14.71" pos="132.32" lane="E0E1_0" slope="0.00"/>
        <vehicle id="1" x="201.60" y="484.19" angle="0.00" type="DEFAULT_VEHTYPE" speed="12.57" pos="76.99" lane="B2B3_0" slope="0.00"/>
    </timestep>
    <timestep time="30.00">
        <vehicle id="0" x="801.60" y="149.01" angle="0.00" type="DEFAULT_VEHTYPE" speed="13.49" pos="145.81" lane="E0E1_0" slope="0.00"/>
        <vehicle id="1" x="201.60" y="496.55" angle="0.00" type="DEFAULT_VEHTYPE" speed="12.36" pos="89.35" lane="B2B3_0" slope="0.00"/>
    </timestep>
    <timestep time="31.00">
        <vehicle id="0" x="801.60" y="162.84" angle="0.00" type="DEFAULT_VEHTYPE" speed="13.83" pos="159.64" lane="E0E1_0" slope="0.00"/>
        <vehicle id="1" x="201.60" y="509.30" angle="0.00" type="DEFAULT_VEHTYPE" speed="12.74" pos="102.10" lane="B2B3_0" slope="0.00"/>
    </timestep>
    <timestep time="32.00">
        <vehicle id="0" x="801.60" y="176.54" angle="0.00" type="DEFAULT_VEHTYPE" speed="13.70" pos="173.34" lane="E0E1_0" slope="0.00"/>
        <vehicle id="1" x="201.60" y="522.17" angle="0.00" type="DEFAULT_VEHTYPE" speed="12.88" pos="114.97" lane="B2B3_0" slope="0.00"/>
    </timestep>
    <timestep time="33.00">
        <vehicle id="0" x="801.60" y="186.58" angle="0.00" type="DEFAULT_VEHTYPE" speed="10.05" pos="183.38" lane="E0E1_0" slope="0.00"/>
        <vehicle id="1" x="201.60" y="535.07" angle="0.00" type="DEFAULT_VEHTYPE" speed="12.90" pos="127.87" lane="B2B3_0" slope="0.00"/>
    </timestep>
    <timestep time="34.00">
        <vehicle id="0" x="801.54" y="193.22" angle="359.30" type="DEFAULT_VEHTYPE" speed="6.65" pos="0.43" lane=":E1_4_0" slope="0.00"/>
        <vehicle id="1" x="201.60" y="547.75" angle="0.00" type="DEFAULT_VEHTYPE" speed="12.68" pos="140.55" lane="B2B3_0" slope="0.00"/>
    </timestep>
    <timestep time="35.00">
        <vehicle id="0" x="797.89" y="200.31" angle="319.36" type="DEFAULT_VEHTYPE" speed="8.43" pos="4.79" lane=":E1_10_0" slope="0.00"/>
        <vehicle id="1" x="201.60" y="559.98" angle="0.00" type="DEFAULT_VEHTYPE" speed="12.23" pos="152.78" lane="B2B3_0" slope="0.00"/>
    </timestep>
    <timestep time="36.00">
        <vehicle id="0" x="790.94" y="201.60" angle="275.10" type="DEFAULT_VEHTYPE" speed="7.20" pos="1.86" lane="E1D1_0" slope="0.00"/>
        <vehicle id="1" x="201.60" y="572.62" angle="0.00" type="DEFAULT_VEHTYPE" speed="12.64" pos="165.42" lane="B2B3_0" slope="0.00"/>
    </timestep>
    <timestep time="37.00">
        <vehicle id="0" x="782.36" y="201.60" angle="270.00" type="DEFAULT_VEHTYPE" speed="8.58" pos="10.44" lane="E1D1_0" slope="0.00"/>
        <vehicle id="1" x="201.60" y="583.21" angle="0.00" type="DEFAULT_VEHTYPE" speed="10.59" pos="176.01" lane="B2B3_0" slope="0.00"/>
    </timestep>
    <timestep time="38.00">
        <vehicle id="0" x="771.27" y="201.60" angle="270.00" type="DEFAULT_VEHTYPE" speed="11.09" pos="21.53" lane="E1D1_0" slope="0.00"/>
        <vehicle id="1" x="201.60" y="589.84" angle="0.00" type="DEFAULT_VEHTYPE" speed="6.63" pos="182.64" lane="B2B3_0" slope="0.00"/>
    </timestep>
    <timestep time="39.00">
        <vehicle id="0" x="757.83" y="201.60" angle="270.00" type="DEFAULT_VEHTYPE" speed="13.44" pos="34.97" lane="E1D1_0" slope="0.00"/>
        <vehicle id="1" x="201.34" y="593.19" angle="357.01" type="DEFAULT_VEHTYPE" speed="3.42" pos="0.46" lane=":B3_11_0" slope="0.00"/>
    </timestep>
    <timestep time="40.00">
        <vehicle id="0" x="743.49" y="201.60" angle="270.00" type="DEFAULT_VEHTYPE" speed="14.34" pos="49.31" lane="E1D1_0" slope="0.00"/>
        <vehicle id="1" x="199.18" y="593.97" angle="320.09" type="DEFAULT_VEHTYPE" speed="2.81" pos="1.83" lane=":B3_19_0" slope="0.00"/>
        <vehicle id="2" x="601.60" y="412.30" angle="0.00" type="DEFAULT_VEHTYPE" speed="0.00" pos="5.10" lane="D2D3_0" slope="0.00"/>
    </timestep>
    <timestep time="41.00">
        <vehicle id="0" x="730.00" y="201.60" angle="270.00" type="DEFAULT_VEHTYPE" speed="13.49" pos="62.80" lane="E1D1_0" slope="0.00"/>
        <vehicle id="1" x="198.40" y="590.85" angle="214.74" type="DEFAULT_VEHTYPE" speed="3.35" pos="1.95" lane="B3B2_0" slope="0.00"/>
        <vehicle id="2" x="601.60" y="414.32" angle="0.00" type="DEFAULT_VEHTYPE" speed="2.02" pos="7.12" lane="D2D3_0" slope="0.00"/>
    </timestep>
    <timestep time="42.00">
        <vehicle id="0" x="715.54" y="201.60" angle="270.00" type="DEFAULT_VEHTYPE" speed="14.46" pos="77.26" lane="E1D1_0" slope="0.00"/>
        <vehicle id="1" x="198.40" y="586.00" angle="180.00" type="DEFAULT_VEHTYPE" speed="4.85" pos="6.80" lane="B3B2_0" slope="0.00"/>
        <vehicle id="2" x="601.60" y="418.17" angle="0.00" type="DEFAULT_VEHTYPE" speed="3.85" pos="10.97" lane="D2D3_0" slope="0.00"/>
    </timestep>
    <timestep time="43.00">
        <vehicle id="0" x="701.72" y="201.60" angle="270.00" type="DEFAULT_VEHTYPE" speed="13.82" pos="91.08" lane="E1D1_0" slope="0.00"/>
        <vehicle id="1" x="198.40" y="578.55" angle="180.00" type="DEFAULT_VEHTYPE" speed="7.44" pos="14.25" lane="B3B2_0" slope="0.00"/>
        <vehicle id="2" x="601.60" y="424.37" angle="0.00" type="DEFAULT_VEHTYPE" speed="6.19" pos="17.17" lane="D2D3_0" slope="0.00"/>
    </timestep>
    <timestep time="44.00">
        <vehicle id="0" x="687.60" y="201.60" angle="270.00" type="DEFAULT_VEHTYPE" speed="14.12" pos="105.20" lane="E1D1_0" slope="0.00"/>
        <vehicle id="1" x="198.40" y="568.71" angle="180.00" type="DEFAULT_VEHTYPE" speed="9.84" pos="24.09" lane="B3B2_0" slope="0.00"/>
        <vehicle id="2" x="601.60" y="433.08" angle="0.00" type="DEFAULT_VEHTYPE" speed="8.71" pos="25.88" lane="D2D3_0" slope="0.00"/>
    </timestep>
    <timestep time="45.00">
        <vehicle id="0" x="673.72" y="201.60" angle="270.00" type="DEFAULT_VEHTYPE" speed="13.87" pos="119.08" lane="E1D1_0" slope="0.00"/>
        <vehicle id="1" x="198.40" y="556.58" angle="180.00" type="DEFAULT_VEHTYPE" speed="12.13" pos="36.22" lane="B3B2_0" slope="0.00"/>
        <vehicle id="2" x="601.60" y="443.47" angle="0.00" type="DEFAULT_VEHTYPE" speed="10.40" pos="36.27" lane="D2D3_0" slope="0.00"/>
    </timestep>
    <timestep time="46.00">
        <vehicle id="0" x="659.06" y="201.60" angle="270.00" type="DEFAULT_VEHTYPE" speed="14.67" pos="133.74" lane="E1D1_0" slope="0.00"/>
        <vehicle id="1" x="198.40" y="543.73" angle="180.00" type="DEFAULT_VEHTYPE" speed="12.85" pos="49.07" lane="B3B2_0" slope="0.00"/>
        <vehicle id="2" x="601.60" y="456.22" angle="0.00" type="DEFAULT_VEHTYPE" speed="12.74" pos="49.02" lane="D2D3_0" slope="0.00"/>
    </timestep>
    <timestep time="47.00">
        <vehicle id="0" x="644.73" y="201.60" angle="270.00" type="DEFAULT_VEHTYPE" speed="14.33" pos="148.07" lane="E1D1_0" slope="0.00"/>
        <vehicle id="1" x="198.40" y="531.25" angle="180.00" type="DEFAULT_VEHTYPE" speed="12.47" pos="61.55" lane="B3B2_0" slope="0.00"/>
        <vehicle id="2" x="601.60" y="469.37" angle="0.00" type="DEFAULT_VEHTYPE" speed="13.15" pos="62.17" lane="D2D3_0" slope="0.00"/>
    </timestep>
    <timestep time="48.00">
        <vehicle id="0" x="630.70" y="201.60" angle="270.00" type="DEFAULT_VEHTYPE" speed="14.02" pos="162.10" lane="E1D1_0" slope="0.00"/>
        <vehicle id="1" x="198.40" y="518.86" angle="180.00" type="DEFAULT_VEHTYPE" speed="12.40" pos="73.94" lane="B3B2_0" slope="0.00"/>
        <vehicle id="2" x="601.60" y="482.43" angle="0.00" type="DEFAULT_VEHTYPE" speed="13.06" pos="75.23" lane="D2D3_0" slope="0.00"/>
    </timestep>
    <timestep time="49.00">
        <vehicle id="0" x="619.29" y="201.60" angle="270.00" type="DEFAULT_VEHTYPE" speed="11.42" pos="173.51" lane="E1D1_0" slope="0.00"/>
        <vehicle id="1" x="198.40" y="506.39" angle="180.00" type="DEFAULT_VEHTYPE" speed="12.47" pos="86.41" lane="B3B2_0" slope="0.00"/>
        <vehicle id="2" x="601.60" y="496.34" angle="0.00" type="DEFAULT_VEHTYPE" speed="13.91" pos="89.14" lane="D2D3_0" slope="0.00"/>
    </timestep>
    <timestep time="50.00">
        <vehicle id="0" x="611.30" y="201.60" angle="270.00" type="DEFAULT_VEHTYPE" speed="7.99" pos="181.50" lane="E1D1_0" slope="0.00"/>
        <vehicle id="1" x="198.40" y="494.10" angle="180.00" type="DEFAULT_VEHTYPE" speed="12.29" pos="98.70" lane="B3B2_0" slope="0.00"/>
        <vehicle id="2" x="601.60" y="509.37" angle="0.00" type="DEFAULT_VEHTYPE" speed="13.03" pos="102.17" lane="D2D3_0" slope="0.00"/>
    </timestep>
    <timestep time="51.00">
        <vehicle id="0" x="601.12" y="201.60" angle="270.00" type="DEFAULT_VEHTYPE" speed="10.18" pos="6.08" lane=":D1_5_0" slope="0.00"/>
        <vehicle id="1" x="198.40" y="481.70" angle="180.00" type="DEFAULT_VEHTYPE" speed="12.40" pos="111.10" lane="B3B2_0" slope="0.00"/>
        <vehicle id="2" x="601.60" y="523.37" angle="0.00" type="DEFAULT_VEHTYPE" speed="14.00" pos="116.17" lane="D2D3_0" slope="0.00"/>
    </timestep>
    <timestep time="52.00">
        <vehicle id="0" x="588.70" y="201.60" angle="270.00" type="DEFAULT_VEHTYPE" speed="12.42" pos="4.10" lane="D1C1_0" slope="0.00"/>
        <vehicle id="1" x="198.40" y="469.48" angle="180.00" type="DEFAULT_VEHTYPE" speed="12.21" pos="123.32" lane="B3B2_0" slope="0.00"/>
        <vehicle id="2" x="601.60" y="536.16" angle="0.00" type="DEFAULT_VEHTYPE" speed="12.79" pos="128.96" lane="D2D3_0" slope="0.00"/>
    </timestep>
    <timestep time="53.00">
        <vehicle id="0" x="575.14" y="201.60" angle="270.00" type="DEFAULT_VEHTYPE" speed="13.57" pos="17.66" lane="D1C1_0" slope="0.00"/>
        <vehicle id="1" x="198.40" y="456.72" angle="180.00" type="DEFAULT_VEHTYPE" speed="12.76" pos="136.08" lane="B3B2_0" slope="0.00"/>
        <vehicle id="2" x="601.60" y="548.95" angle="0.00" type="DEFAULT_VEHTYPE" speed="12.79" pos="141.75" lane="D2D3_0" slope="0.00"/>
    </timestep>
    <timestep time="54.00">
        <vehicle id="0" x="561.34" y="201.60" angle="270.00" type="DEFAULT_VEHTYPE" speed="13.80" pos="31.46" lane="D1C1_0" slope="0.00"/>
        <vehicle id="1" x="198.40" y="444.32" angle="180.00" type="DEFAULT_VEHTYPE" speed="12.41" pos="148.48" lane="B3B2_0" slope="0.00"/>
        <vehicle id="2" x="601.60" y="561.99" angle="0.00" type="DEFAULT_VEHTYPE" speed="13.03" pos="154.79" lane="D2D3_0" slope="0.00"/>
    </timestep>
    <timestep time="55.00">
        <vehicle id="0" x="546.67" y="201.60" angle="270.00" type="DEFAULT_VEHTYPE" speed="14.66" pos="46.13" lane="D1C1_0" slope="0.00"/>
        <vehicle id="1" x="198.40" y="431.60" angle="180.00" type="DEFAULT_VEHTYPE" speed="12.72" pos="161.20" lane="B3B2_0" slope="0.00"/>
        <vehicle id="2" x="601.60" y="575.45" angle="0.00" type="DEFAULT_VEHTYPE" speed="13.46" pos="168.25" lane="D2D3_0" slope="0.00"/>
    </timestep>
    <timestep time="56.00">
        <vehicle id="0" x="532.59" y="201.60" angle="270.00" type="DEFAULT_VEHTYPE" speed="14.08" pos="60.21" lane="D1C1_0" slope="0.00"/>
        <vehicle id="1" x="198.40" y="418.76" angle="180.00" type="DEFAULT_VEHTYPE" speed="12.84" pos="174.04" lane="B3B2_0" slope="0.00"/>
        <vehicle id="2" x="601.60" y="585.51" angle="0.00" type="DEFAULT_VEHTYPE" speed="10.06" pos="178.31" lane="D2D3_0" slope="0.00"/>
    </timestep>
    <timestep time="57.00">
        <vehicle id="0" x="518.63" y="201.60" angle="270.00" type="DEFAULT_VEHTYPE" speed="13.96" pos="74.17" lane="D1C1_0" slope="0.00"/>
        <vehicle id="1" x="198.40" y="406.51" angle="180.00" type="DEFAULT_VEHTYPE" speed="12.25" pos="0.69" lane=":B2_1_0" slope="0.00"/>
        <vehicle id="2" x="601.60" y="591.15" angle="0.00" type="DEFAULT_VEHTYPE" speed="5.64" pos="183.95" lane="D2D3_0" slope="0.00"/>
    </timestep>
    <timestep time="58.00">
        <vehicle id="0" x="503.97" y="201.60" angle="270.00" type="DEFAULT_VEHTYPE" speed="14.67" pos="88.83" lane="D1C1_0" slope="0.00"/>
        <vehicle id="1" x="198.40" y="393.57" angle="180.00" type="DEFAULT_VEHTYPE" speed="12.94" pos="13.63" lane=":B2_1_0" slope="0.00"/>
        <vehicle id="2" x="600.55" y="594.12" angle="347.18" type="DEFAULT_VEHTYPE" speed="3.37" pos="0.28" lane=":D3_19_0" slope="0.00"/>
    </timestep>
    <timestep time="59.00">
        <vehicle id="0" x="490.21" y="201.60" angle="270.00" type="DEFAULT_VEHTYPE" speed="13.76" pos="102.59" lane="D1C1_0" slope="0.00"/>
        <vehicle id="1" x="198.40" y="380.99" angle="180.00" type="DEFAULT_VEHTYPE" speed="12.58" pos="11.81" lane="B2B1_0" slope="0.00"/>
        <vehicle id="2" x="598.68" y="593.22" angle="293.40" type="DEFAULT_VEHTYPE" speed="2.44" pos="2.72" lane=":D3_19_0" slope="0.00"/>
    </timestep>
    <timestep time="60.00">
        <vehicle id="0" x="475.81" y="201.60" angle="270.00" type="DEFAULT_VEHTYPE" speed="14.40" pos="116.99" lane="D1C1_0" slope="0.00"/>
        <vehicle id="1" x="198.40" y="368.37" angle="180.00" type="DEFAULT_VEHTYPE" speed="12.61" pos="24.43" lane="B2B1_0" slope="0.00"/>
        <vehicle id="2" x="598.40" y="590.71" angle="211.72" type="DEFAULT_VEHTYPE" speed="2.59" pos="2.09" lane="D3D2_0" slope="0.00"/>
        <vehicle id="3" x="801.60" y="212.30" angle="0.00" type="DEFAULT_VEHTYPE" speed="0.00" pos="5.10" lane="E1E2_0" slope="0.00"/>
    </timestep>
    <timestep time="61.00">
        <vehicle id="0" x="461.79" y="201.60" angle="270.00" type="DEFAULT_VEHTYPE" speed="14.01" pos="131.01" lane="D1C1_0" slope="0.00"/>
        <vehicle id="1" x="198.40" y="355.50" angle="180.00" type="DEFAULT_VEHTYPE" speed="12.87" pos="37.30" lane="B2B1_0" slope="0.00"/>
        <vehicle id="2" x="598.40" y="586.74" angle="180.00" type="DEFAULT_VEHTYPE" speed="3.97" pos="6.06" lane="D3D2_0" slope="0.00"/>
        <vehicle id="3" x="801.60" y="213.76" angle="0.00" type="DEFAULT_VEHTYPE" speed="1.46" pos="6.56" lane="E1E2_0" slope="0.00"/>
    </timestep>
    <timestep time="62.00">
        <vehicle id="0" x="448.04" y="201.60" angle="270.00" type="DEFAULT_VEHTYPE" speed="13.75" pos="144.76" lane="D1C1_0" slope="0.00"/>
        <vehicle id="1" x="198.40" y="342.89" angle="180.00" type="DEFAULT_VEHTYPE" speed="12.61" pos="49.91" lane="B2B1_0" slope="0.00"/>
        <vehicle id="2" x="598.40" y="580.39" angle="180.00" type="DEFAULT_VEHTYPE" speed="6.35" pos="12.41" lane="D3D2_0" slope="0.00"/>
        <vehicle id="3" x="801.60" y="217.77" angle="0.00" type="DEFAULT_VEHTYPE" speed="4.01" pos="10.57" lane="E1E2_0" slope="0.00"/>
    </timestep>
    <timestep time="63.00">
        <vehicle id="0" x="433.32" y="201.60" angle="270.00" type="DEFAULT_VEHTYPE" speed="14.72" pos="159.48" lane="D1C1_0" slope="0.00"/>
        <vehicle id="1" x="198.40" y="331.07" angle="180.00" type="DEFAULT_VEHTYPE" speed="11.83" pos="61.73" lane="B2B1_0" slope="0.00"/>
        <vehicle id="2" x="598.40" y="572.49" angle="180.00" type="DEFAULT_VEHTYPE" speed="7.90" pos="20.31" lane="D3D2_0" slope="0.00"/>
        <vehicle id="3" x="801.60" y="223.83" angle="0.00" type="DEFAULT_VEHTYPE" speed="6.07" pos="16.63" lane="E1E2_0" slope="0.00"/>
    </timestep>
    <timestep time="64.00">
        <vehicle id="0" x="421.02" y="201.60" angle="270.00" type="DEFAULT_VEHTYPE" speed="12.30" pos="171.78" lane="D1C1_0" slope="0.00"/>
        <vehicle id="1" x="198.40" y="319.24" angle="180.00" type="DEFAULT_VEHTYPE" speed="11.83" pos="73.56" lane="B2B1_0" slope="0.00"/>
        <vehicle id="2" x="598.40" y="562.79" angle="180.00" type="DEFAULT_VEHTYPE" speed="9.70" pos="30.01" lane="D3D2_0" slope="0.00"/>
        <vehicle id="3" x="801.60" y="232.32" angle="0.00" type="DEFAULT_VEHTYPE" speed="8.48" pos="25.12" lane="E1E2_0" slope="0.00"/>
    </timestep>
    <timestep time="65.00">
        <vehicle id="0" x="412.56" y="201.60" angle="270.00" type="DEFAULT_VEHTYPE" speed="8.47" pos="180.24" lane="D1C1_0" slope="0.00"/>
        <vehicle id="1" x="198.40" y="306.76" angle="180.00" type="DEFAULT_VEHTYPE" speed="12.48" pos="86.04" lane="B2B1_0" slope="0.00"/>
        <vehicle id="2" x="598.40" y="551.10" angle="180.00" type="DEFAULT_VEHTYPE" speed="11.69" pos="41.70" lane="D3D2_0" slope="0.00"/>
        <vehicle id="3" x="801.60" y="243.29" angle="0.00" type="DEFAULT_VEHTYPE" speed="10.97" pos="36.09" lane="E1E2_0" slope="0.00"/>
    </timestep>
    <timestep time="66.00">
        <vehicle id="0" x="408.27" y="201.60" angle="270.00" type="DEFAULT_VEHTYPE" speed="4.29" pos="184.53" lane="D1C1_0" slope="0.00"/>
        <vehicle id="1" x="198.40" y="294.13" angle="180.00" type="DEFAULT_VEHTYPE" speed="12.63" pos="98.67" lane="B2B1_0" slope="0.00"/>
        <vehicle id="2" x="598.40" y="537.78" angle="180.00" type="DEFAULT_VEHTYPE" speed="13.32" pos="55.02" lane="D3D2_0" slope="0.00"/>
        <vehicle id="3" x="801.60" y="256.69" angle="0.00" type="DEFAULT_VEHTYPE" speed="13.40" pos="49.49" lane="E1E2_0" slope="0.00"/>
    </timestep>
    <timestep time="67.00">
        <vehicle id="0" x="402.11" y="201.60" angle="270.00" type="DEFAULT_VEHTYPE" speed="6.15" pos="5.09" lane=":C1_5_0" slope="0.00"/>
        <vehicle id="1" x="198.40" y="281.60" angle="180.00" type="DEFAULT_VEHTYPE" speed="12.53" pos="111.20" lane="B2B1_0" slope="0.00"/>
        <vehicle id="2" x="598.40" y="524.11" angle="180.00" type="DEFAULT_VEHTYPE" speed="13.67" pos="68.69" lane="D3D2_0" slope="0.00"/>
        <vehicle id="3" x="801.60" y="270.63" angle="0.00" type="DEFAULT_VEHTYPE" speed="13.94" pos="63.43" lane="E1E2_0" slope="0.00"/>
    </timestep>
    <timestep time="68.00">
        <vehicle id="0" x="394.00" y="201.60" angle="270.00" type="DEFAULT_VEHTYPE" speed="8.11" pos="13.20" lane=":C1_5_0" slope="0.00"/>
        <vehicle id="1" x="198.40" y="268.78" angle="180.00" type="DEFAULT_VEHTYPE" speed="12.82" pos="124.02" lane="B2B1_0" slope="0.00"/>
        <vehicle id="2" x="598.40" y="510.15" angle="180.00" type="DEFAULT_VEHTYPE" speed="13.96" pos="82.65" lane="D3D2_0" slope="0.00"/>
        <vehicle id="3" x="801.60" y="285.12" angle="0.00" type="DEFAULT_VEHTYPE" speed="14.50" pos="77.92" lane="E1E2_0" slope="0.00"/>
    </timestep>
    <timestep time="69.00">
        <vehicle id="0" x="383.40" y="201.60" angle="270.00" type="DEFAULT_VEHTYPE" speed="10.60" pos="9.40" lane="C1B1_0" slope="0.00"/>
        <vehicle id="1" x="198.40" y="256.76" angle="180.00" type="DEFAULT_VEHTYPE" speed="12.02" pos="136.04" lane="B2B1_0" slope="0.00"/>
        <vehicle id="2" x="598.40" y="496.20" angle="180.00" type="DEFAULT_VEHTYPE" speed="13.95" pos="96.60" lane="D3D2_0" slope="0.00"/>
        <vehicle id="3" x="801.60" y="299.73" angle="0.00" type="DEFAULT_VEHTYPE" speed="14.61" pos="92.53" lane="E1E2_0" slope="0.00"/>
    </timestep>
    <timestep time="70.00">
        <vehicle id="0" x="371.09" y="201.60" angle="270.00" type="DEFAULT_VEHTYPE" speed="12.31" pos="21.71" lane="C1B1_0" slope="0.00"/>
        <vehicle id="1" x="198.40" y="244.20" angle="180.00" type="DEFAULT_VEHTYPE" speed="12.56" pos="148.60" lane="B2B1_0" slope="0.00"/>
        <vehicle id="2" x="598.40" y="483.09" angle="180.00" type="DEFAULT_VEHTYPE" speed="13.11" pos="109.71" lane="D3D2_0" slope="0.00"/>
        <vehicle id="3" x="801.60" y="314.73" angle="0.00" type="DEFAULT_VEHTYPE" speed="15.00" pos="107.53" lane="E1E2_0" slope="0.00"/>
    </timestep>
    <timestep time="71.00">
        <vehicle id="0" x="356.45" y="201.60" angle="270.00" type="DEFAULT_VEHTYPE" speed="14.65" pos="36.35" lane="C1B1_0" slope="0.00"/>
        <vehicle id="1" x="198.40" y="232.10" angle="180.00" type="DEFAULT_VEHTYPE" speed="12.10" pos="160.70" lane="B2B1_0" slope="0.00"/>
        <vehicle id="2" x="598.40" y="469.65" angle="180.00" type="DEFAULT_VEHTYPE" speed="13.44" pos="123.15" lane="D3D2_0" slope="0.00"/>
        <vehicle id="3" x="801.60" y="328.94" angle="0.00" type="DEFAULT_VEHTYPE" speed="14.21" pos="121.74" lane="E1E2_0" slope="0.00"/>
    </timestep>
    <timestep time="72.00">
        <vehicle id="0" x="342.30" y="201.60" angle="270.00" type="DEFAULT_VEHTYPE" speed="14.15" pos="50.50" lane="C1B1_0" slope="0.00"/>
        <vehicle id="1" x="198.40" y="219.75" angle="180.00" type="DEFAULT_VEHTYPE" speed="12.35" pos="173.05" lane="B2B1_0" slope="0.00"/>
        <vehicle id="2" x="598.40" y="456.89" angle="180.00" type="DEFAULT_VEHTYPE" speed="12.76" pos="135.91" lane="D3D2_0" slope="0.00"/>
        <vehicle id="3" x="801.60" y="343.65" angle="0.00" type="DEFAULT_VEHTYPE" speed="14.71" pos="136.45" lane="E1E2_0" slope="0.00"/>
    </timestep>
    <timestep time="73.00">
        <vehicle id="0" x="328.87" y="201.60" angle="270.00" type="DEFAULT_VEHTYPE" speed="13.43" pos="63.93" lane="C1B1_0" slope="0.00"/>
        <vehicle id="1" x="198.40" y="207.91" angle="180.00" type="DEFAULT_VEHTYPE" speed="11.84" pos="184.89" lane="B2B1_0" slope="0.00"/>
        <vehicle id="2" x="598.40" y="443.51" angle="180.00" type="DEFAULT_VEHTYPE" speed="13.38" pos="149.29" lane="D3D2_0" slope="0.00"/>
        <vehicle id="3" x="801.60" y="358.17" angle="0.00" type="DEFAULT_VEHTYPE" speed="14.52" pos="150.97" lane="E1E2_0" slope="0.00"/>
    </timestep>
    <timestep time="74.00">
        <vehicle id="0" x="315.15" y="201.60" angle="270.00" type="DEFAULT_VEHTYPE" speed="13.72" pos="77.65" lane="C1B1_0" slope="0.00"/>
        <vehicle id="1" x="198.40" y="195.90" angle="180.00" type="DEFAULT_VEHTYPE" speed="12.01" pos="11.30" lane=":B1_1_0" slope="0.00"/>
        <vehicle id="2" x="598.40" y="430.07" angle="180.00" type="DEFAULT_VEHTYPE" speed="13.44" pos="162.73" lane="D3D2_0" slope="0.00"/>
        <vehicle id="3" x="801.60" y="372.04" angle="0.00" type="DEFAULT_VEHTYPE" speed="13.87" pos="164.84" lane="E1E2_0" slope="0.00"/>
    </timestep>
    <timestep time="75.00">
        <vehicle id="0" x="301.70" y="201.60" angle="270.00" type="DEFAULT_VEHTYPE" speed="13.46" pos="91.10" lane="C1B1_0" slope="0.00"/>
        <vehicle id="1" x="198.40" y="183.80" angle="180.00" type="DEFAULT_VEHTYPE" speed="12.10" pos="9.00" lane="B1B0_0" slope="0.00"/>
        <vehicle id="2" x="598.40" y="417.01" angle="180.00" type="DEFAULT_VEHTYPE" speed="13.06" pos="175.79" lane="D3D2_0" slope="0.00"/>
        <vehicle id="3" x="801.60" y="383.87" angle="0.00" type="DEFAULT_VEHTYPE" speed="11.83" pos="176.67" lane="E1E2_0" slope="0.00"/>
    </timestep>
    <timestep time="76.00">
        <vehicle id="0" x="287.99" y="201.60" angle="270.00" type="DEFAULT_VEHTYPE" speed="13.71" pos="104.81" lane="C1B1_0" slope="0.00"/>
        <vehicle id="1" x="198.40" y="172.06" angle="180.00" type="DEFAULT_VEHTYPE" speed="11.74" pos="20.74" lane="B1B0_0" slope="0.00"/>
        <vehicle id="2" x="598.40" y="403.24" angle="180.00" type="DEFAULT_VEHTYPE" speed="13.77" pos="3.96" lane=":D2_1_0" slope="0.00"/>