<?xml version="1.0" encoding="UTF-8"?>

<!-- generated on 2025-08-25 19:44:27 by Eclipse SUMO sumo Version 1.24.0
<sumoConfiguration xmlns:xsi="http://www.w3.org/2001/XMLSchema-instance" xsi:noNamespaceSchemaLocation="http://sumo.dlr.de/xsd/sumoConfiguration.xsd">

    <input>
        <net-file value="grid.net.xml"/>
        <route-files value="grid.rou.xml"/>
    </input>

    <output>
        <fcd-output value="fcd-output.xml"/>
        <tripinfo-output value="tripinfo.xml"/>
    </output>

    <time>
        <begin value="0"/>
        <end value="1000"/>
    </time>

</sumoConfiguration>
-->

<tripinfos xmlns:xsi="http://www.w3.org/2001/XMLSchema-instance" xsi:noNamespaceSchemaLocation="http://sumo.dlr.de/xsd/tripinfo_file.xsd">
    <tripinfo id="1" depart="20.00" departLane="B2B3_0" departPos="5.10" departSpeed="0.00" departDelay="0.00" arrival="90.00" arrivalLane="B1B0_0" arrivalPos="185.60" arrivalSpeed="12.89" duration="70.00" routeLength="770.77" waitingTime="0.00" waitingCount="0" stopTime="0.00" timeLoss="8.78" rerouteNo="0" devices="tripinfo_1 fcd_1" vType="DEFAULT_VEHTYPE" speedFactor="0.94" vaporized=""/>
    <tripinfo id="2" depart="40.00" departLane="D2D3_0" departPos="5.10" departSpeed="0.00" departDelay="0.00" arrival="110.00" arrivalLane="D1D2_0" arrivalPos="185.60" arrivalSpeed="12.76" duration="70.00" routeLength="761.04" waitingTime="0.00" waitingCount="0" stopTime="0.00" timeLoss="12.82" rerouteNo="0" devices="tripinfo_2 fcd_2" vType="DEFAULT_VEHTYPE" speedFactor="1.01" vaporized=""/>
    <tripinfo id="0" depart="0.00" departLane="D0E0_0" departPos="5.10" departSpeed="0.00" departDelay="0.00" arrival="116.00" arrivalLane="A1A0_0" arrivalPos="189.60" arrivalSpeed="14.44" duration="116.00" routeLength="1385.43" waitingTime="0.00" waitingCount="0" stopTime="0.00" timeLoss="19.37" rerouteNo="0" devices="tripinfo_0 fcd_0" vType="DEFAULT_VEHTYPE" speedFactor="1.06" vaporized=""/>
    <tripinfo id="3" depart="60.00" departLane="E1E2_0" departPos="5.10" departSpeed="0.00" departDelay="0.00" arrival="157.00" arrivalLane="A2A3_0" arrivalPos="185.60" arrivalSpeed="13.90" duration="97.00" routeLength="1174.93" waitingTime="0.00" waitingCount="0" stopTime="0.00" timeLoss="17.46" rerouteNo="0" devices="tripinfo_3 fcd_3" vType="DEFAULT_VEHTYPE" speedFactor="1.08" vaporized=""/>
    <tripinfo id="6" depart="120.00" departLane="A1A0_0" departPos="5.10" departSpeed="0.00" departDelay="0.00" arrival="169.00" arrivalLane="B0C0_0" arrivalPos="185.60" arrivalSpeed="13.78" duration="49.00" routeLength="581.84" waitingTime="0.00" waitingCount="0" stopTime="0.00" timeLoss="7.76" rerouteNo="0" devices="tripinfo_6 fcd_6" vType="DEFAULT_VEHTYPE" speedFactor="1.05" vaporized=""/>
    <tripinfo id="4" depart="80.00" departLane="C0D0_0" departPos="5.10" departSpeed="0.00" departDelay="0.00" arrival="181.00" arrivalLane="A1A0_0" arrivalPos="189.60" arrivalSpeed="13.97" duration="101.00" routeLength="1183.89" waitingTime="0.00" waitingCount="0" stopTime="0.00" timeLoss="15.25" rerouteNo="0" devices="tripinfo_4 fcd_4" vType="DEFAULT_VEHTYPE" speedFactor="1.03" vaporized=""/>
    <tripinfo id="5" depart="100.00" departLane="B1B0_0" departPos="5.10" departSpeed="0.00" departDelay="0.00" arrival="197.00" arrivalLane="C2C3_0" arrivalPos="185.60" arrivalSpeed="11.32" duration="97.00" routeLength="980.09" waitingTime="0.00" waitingCount="0" stopTime="0.00" timeLoss="9.79" rerouteNo="0" devices="tripinfo_5 fcd_5" vType="DEFAULT_VEHTYPE" speedFactor="0.83" vaporized=""/>
    <tripinfo id="7" depart="140.00" departLane="D0E0_0" departPos="5.10" departSpeed="0.00" departDelay="0.00" arrival="269.00" arrivalLane="C3C2_0" arrivalPos="185.60" arrivalSpeed="11.72" duration="129.00" routeLength="1381.43" waitingTime="0.00" waitingCount="0" stopTime="0.00" timeLoss="13.90" rerouteNo="0" devices="tripinfo_7 fcd_7" vType="DEFAULT_VEHTYPE" speedFactor="0.89" vaporized=""/>
    <tripinfo id="13" depart="260.00" departLane="A2B2_0" departPos="5.10" departSpeed="0.00" departDelay="0.00" arrival="276.00" arrivalLane="A2B2_0" arrivalPos="185.60" arrivalSpeed="15.32" duration="16.00" routeLength="180.50" waitingTime="0.00" waitingCount="0" stopTime="0.00" timeLoss="4.18" rerouteNo="0" devices="tripinfo_13 fcd_13" vType="DEFAULT_VEHTYPE" speedFactor="1.12" vaporized=""/>
    <tripinfo id="8" depart="160.00" departLane="B1B0_0" departPos="5.10" departSpeed="0.00" departDelay="0.00" arrival="283.00" arrivalLane="C4C3_0" arrivalPos="185.60" arrivalSpeed="11.84" duration="123.00" routeLength="1360.03" waitingTime="0.00" waitingCount="0" stopTime="0.00" timeLoss="16.06" rerouteNo="0" devices="tripinfo_8 fcd_8" vType="DEFAULT_VEHTYPE" speedFactor="0.94" vaporized=""/>
    <tripinfo id="10" depart="200.00" departLane="D4C4_0" departPos="5.10" departSpeed="0.00" departDelay="0.00" arrival="292.00" arrivalLane="D1E1_0" arrivalPos="185.60" arrivalSpeed="15.11" duration="92.00" routeLength="1180.10" waitingTime="0.00" waitingCount="0" stopTime="0.00" timeLoss="12.63" rerouteNo="0" devices="tripinfo_10 fcd_10" vType="DEFAULT_VEHTYPE" speedFactor="1.09" vaporized=""/>
    <tripinfo id="11" depart="220.00" departLane="B3C3_0" departPos="5.10" departSpeed="0.00" departDelay="0.00" arrival="308.00" arrivalLane="A4B4_0" arrivalPos="189.60" arrivalSpeed="13.00" duration="88.00" routeLength="961.58" waitingTime="0.00" waitingCount="0" stopTime="0.00" timeLoss="17.40" rerouteNo="0" devices="tripinfo_11 fcd_11" vType="DEFAULT_VEHTYPE" speedFactor="1.03" vaporized=""/>
    <tripinfo id="9" depart="180.00" departLane="D4C4_0" departPos="5.10" departSpeed="0.00" departDelay="0.00" arrival="331.00" arrivalLane="A0A1_0" arrivalPos="189.60" arrivalSpeed="11.80" duration="151.00" routeLength="1571.11" waitingTime="0.00" waitingCount="0" stopTime="0.00" timeLoss="16.69" rerouteNo="0" devices="tripinfo_9 fcd_9" vType="DEFAULT_VEHTYPE" speedFactor="0.86" vaporized=""/>
    <tripinfo id="12" depart="240.00" departLane="E3E2_0" departPos="5.10" departSpeed="0.00" departDelay="0.00" arrival="336.00" arrivalLane="B3B4_0" arrivalPos="185.60" arrivalSpeed="14.08" duration="96.00" routeLength="1169.76" waitingTime="0.00" waitingCount="0" stopTime="0.00" timeLoss="14.27" rerouteNo="0" devices="tripinfo_12 fcd_12" vType="DEFAULT_VEHTYPE" speedFactor="1.05" vaporized=""/>
    <tripinfo id="15" depart="300.00" departLane="D4C4_0" departPos="5.10" departSpeed="0.00" departDelay="0.00" arrival="390.00" arrivalLane="D2D3_0" arrivalPos="185.60" arrivalSpeed="12.50" duration="90.00" routeLength="979.89" waitingTime="0.00" waitingCount="0" stopTime="0.00" timeLoss="10.40" rerouteNo="0" devices="tripinfo_15 fcd_15" vType="DEFAULT_VEHTYPE" speedFactor="0.93" vaporized=""/>
    <tripinfo id="14" depart="280.00" departLane="E0D0_0" departPos="5.10" departSpeed="0.00" departDelay="0.00" arrival="393.00" arrivalLane="C4D4_0" arrivalPos="185.60" arrivalSpeed="12.94" duration="113.00" routeLength="1373.76" waitingTime="0.00" waitingCount="0" stopTime="0.00" timeLoss="12.22" rerouteNo="0" devices="tripinfo_14 fcd_14" vType="DEFAULT_VEHTYPE" speedFactor="0.99" vaporized=""/>
    <tripinfo id="17" depart="340.00" departLane="B4C4_0" departPos="5.10" departSpeed="0.00" departDelay="0.00" arrival="395.00" arrivalLane="C3C4_0" arrivalPos="185.60" arrivalSpeed="11.99" duration="55.00" routeLength="565.40" waitingTime="0.00" waitingCount="0" stopTime="0.00" timeLoss="9.24" rerouteNo="0" devices="tripinfo_17 fcd_17" vType="DEFAULT_VEHTYPE" speedFactor="0.94" vaporized=""/>
    <tripinfo id="16" depart="320.00" departLane="C3B3_0" departPos="5.10" departSpeed="0.00" departDelay="0.00" arrival="419.00" arrivalLane="E3E4_0" arrivalPos="189.60" arrivalSpeed="11.65" duration="99.00" routeLength="974.56" waitingTime="1.00" waitingCount="1" stopTime="0.00" timeLoss="17.22" rerouteNo="0" devices="tripinfo_16 fcd_16" vType="DEFAULT_VEHTYPE" speedFactor="0.88" vaporized=""/>
    <tripinfo id="21" depart="420.00" departLane="B1B2_0" departPos="5.10" departSpeed="0.00" departDelay="0.00" arrival="455.00" arrivalLane="B2C2_0" arrivalPos="185.60" arrivalSpeed="12.86" duration="35.00" routeLength="375.13" waitingTime="0.00" waitingCount="0" stopTime="0.00" timeLoss="6.73" rerouteNo="0" devices="tripinfo_21 fcd_21" vType="DEFAULT_VEHTYPE" speedFactor="1.01" vaporized=""/>
    <tripinfo id="19" depart="380.00" departLane="E0E1_0" departPos="5.10" departSpeed="0.00" departDelay="0.00" arrival="476.00" arrivalLane="C4B4_0" arrivalPos="185.60" arrivalSpeed="15.91" duration="96.00" routeLength="1385.84" waitingTime="0.00" waitingCount="0" stopTime="0.00" timeLoss="9.07" rerouteNo="0" devices="tripinfo_19 fcd_19" vType="DEFAULT_VEHTYPE" speedFactor="1.16" vaporized=""/>
    <tripinfo id="18" depart="360.00" departLane="D4E4_0" departPos="5.10" departSpeed="0.00" departDelay="0.00" arrival="482.00" arrivalLane="D0C0_0" arrivalPos="185.60" arrivalSpeed="12.19" duration="122.00" routeLength="1372.86" waitingTime="0.00" waitingCount="0" stopTime="0.00" timeLoss="15.08" rerouteNo="0" devices="tripinfo_18 fcd_18" vType="DEFAULT_VEHTYPE" speedFactor="0.94" vaporized=""/>
    <tripinfo id="20" depart="400.00" departLane="D2C2_0" departPos="5.10" departSpeed="0.00" departDelay="0.00" arrival="485.00" arrivalLane="A1A2_0" arrivalPos="185.60" arrivalSpeed="13.22" duration="85.00" routeLength="969.55" waitingTime="0.00" waitingCount="0" stopTime="0.00" timeLoss="14.19" rerouteNo="0" devices="tripinfo_20 fcd_20" vType="DEFAULT_VEHTYPE" speedFactor="1.02" vaporized=""/>
    <tripinfo id="23" depart="460.00" departLane="A3A2_0" departPos="5.10" departSpeed="0.00" departDelay="0.00" arrival="517.00" arrivalLane="B2B3_0" arrivalPos="185.60" arrivalSpeed="11.84" duration="57.00" routeLength="580.09" waitingTime="0.00" waitingCount="0" stopTime="0.00" timeLoss="8.06" rerouteNo="0" devices="tripinfo_23 fcd_23" vType="DEFAULT_VEHTYPE" speedFactor="0.89" vaporized=""/>
    <tripinfo id="22" depart="440.00" departLane="A2A3_0" departPos="5.10" departSpeed="0.00" departDelay="0.00" arrival="528.00" arrivalLane="B1B2_0" arrivalPos="185.60" arrivalSpeed="12.86" duration="88.00" routeLength="960.03" waitingTime="0.00" waitingCount="0" stopTime="0.00" timeLoss="14.76" rerouteNo="0" devices="tripinfo_22 fcd_22" vType="DEFAULT_VEHTYPE" speedFactor="0.97" vaporized=""/>
    <tripinfo id="25" depart="500.00" departLane="B4B3_0" departPos="5.10" departSpeed="0.00" departDelay="0.00" arrival="573.00" arrivalLane="B1A1_0" arrivalPos="185.60" arrivalSpeed="11.34" duration="73.00" routeLength="775.13" waitingTime="0.00" waitingCount="0" stopTime="0.00" timeLoss="7.83" rerouteNo="0" devices="tripinfo_25 fcd_25" vType="DEFAULT_VEHTYPE" speedFactor="0.87" vaporized=""/>
    <tripinfo id="24" depart="480.00" departLane="D0D1_0" departPos="5.10" departSpeed="0.00" departDelay="0.00" arrival="615.00" arrivalLane="B4B3_0" arrivalPos="185.60" arrivalSpeed="11.39" duration="135.00" routeLength="1380.09" waitingTime="0.00" waitingCount="0" stopTime="0.00" timeLoss="12.69" rerouteNo="0" devices="tripinfo_24 fcd_24" vType="DEFAULT_VEHTYPE" speedFactor="0.83" vaporized=""/>
    <tripinfo id="26" depart="520.00" departLane="B2B1_0" departPos="5.10" departSpeed="0.00" departDelay="0.00" arrival="628.00" arrivalLane="E2E3_0" arrivalPos="185.60" arrivalSpeed="11.76" duration="108.00" routeLength="1180.09" waitingTime="0.00" waitingCount="0" stopTime="0.00" timeLoss="13.78" rerouteNo="0" devices="tripinfo_26 fcd_26" vType="DEFAULT_VEHTYPE" speedFactor="0.92" vaporized=""/>
    <tripinfo id="28" depart="560.00" departLane="B0A0_0" departPos="5.10" departSpeed="0.00" departDelay="0.00" arrival="667.00" arrivalLane="D2D3_0" arrivalPos="185.60" arrivalSpeed="15.16" duration="107.00" routeLength="1371.10" waitingTime="0.00" waitingCount="0" stopTime="0.00" timeLoss="17.78" rerouteNo="0" devices="tripinfo_28 fcd_28" vType="DEFAULT_VEHTYPE" speedFactor="1.13" vaporized=""/>
    <tripinfo id="27" depart="540.00" departLane="D0E0_0" departPos="5.10" departSpeed="0.00" departDelay="0.00" arrival="680.00" arrivalLane="C4D4_0" arrivalPos="185.60" arrivalSpeed="12.31" duration="140.00" routeLength="1570.90" waitingTime="0.00" waitingCount="0" stopTime="0.00" timeLoss="17.71" rerouteNo="0" devices="tripinfo_27 fcd_27" vType="DEFAULT_VEHTYPE" speedFactor="0.95" vaporized=""/>
    <tripinfo id="30" depart="600.00" departLane="E4E3_0" departPos="5.10" departSpeed="0.00" departDelay="0.00" arrival="687.00" arrivalLane="D0E0_0" arrivalPos="189.60" arrivalSpeed="15.21" duration="87.00" routeLength="1182.71" waitingTime="0.00" waitingCount="0" stopTime="0.00" timeLoss="12.74" rerouteNo="0" devices="tripinfo_30 fcd_30" vType="DEFAULT_VEHTYPE" speedFactor="1.18" vaporized=""/>
    <tripinfo id="29" depart="580.00" departLane="B0A0_0" departPos="5.10" departSpeed="0.00" departDelay="0.00" arrival="700.00" arrivalLane="B4C4_0" arrivalPos="185.60" arrivalSpeed="12.81" duration="120.00" routeLength="1372.86" waitingTime="0.00" waitingCount="0" stopTime="0.00" timeLoss="13.71" rerouteNo="0" devices="tripinfo_29 fcd_29" vType="DEFAULT_VEHTYPE" speedFactor="0.93" vaporized=""/>
    <tripinfo id="31" depart="620.00" departLane="C3C4_0" departPos="5.10" departSpeed="0.00" departDelay="0.00" arrival="709.00" arrivalLane="D1D2_0" arrivalPos="185.60" arrivalSpeed="14.94" duration="89.00" routeLength="1170.36" waitingTime="0.00" waitingCount="0" stopTime="0.00" timeLoss="13.85" rerouteNo="0" devices="tripinfo_31 fcd_31" vType="DEFAULT_VEHTYPE" speedFactor="1.15" vaporized=""/>
    <tripinfo id="34" depart="680.00" departLane="B3B2_0" departPos="5.10" departSpeed="0.00" departDelay="0.00" arrival="712.00" arrivalLane="B2B1_0" arrivalPos="185.60" arrivalSpeed="13.70" duration="32.00" routeLength="380.50" waitingTime="0.00" waitingCount="0" stopTime="0.00" timeLoss="4.11" rerouteNo="0" devices="tripinfo_34 fcd_34" vType="DEFAULT_VEHTYPE" speedFactor="0.99" vaporized=""/>
    <tripinfo id="32" depart="640.00" departLane="E0D0_0" departPos="5.10" departSpeed="0.00" departDelay="0.00" arrival="720.00" arrivalLane="D3D4_0" arrivalPos="185.60" arrivalSpeed="13.70" duration="80.00" routeLength="979.13" waitingTime="0.00" waitingCount="0" stopTime="0.00" timeLoss="9.01" rerouteNo="0" devices="tripinfo_32 fcd_32" vType="DEFAULT_VEHTYPE" speedFactor="1.01" vaporized=""/>
    <tripinfo id="33" depart="660.00" departLane="B1B2_0" departPos="5.10" departSpeed="0.00" departDelay="0.00" arrival="721.00" arrivalLane="A1A0_0" arrivalPos="189.60" arrivalSpeed="15.30" duration="61.00" routeLength="784.09" waitingTime="0.00" waitingCount="0" stopTime="0.00" timeLoss="10.63" rerouteNo="0" devices="tripinfo_33 fcd_33" vType="DEFAULT_VEHTYPE" speedFactor="1.17" vaporized=""/>
    <tripinfo id="37" depart="740.00" departLane="D1C1_0" departPos="5.10" departSpeed="0.00" departDelay="0.00" arrival="787.00" arrivalLane="C0B0_0" arrivalPos="185.60" arrivalSpeed="15.13" duration="47.00" routeLength="574.92" waitingTime="0.00" waitingCount="0" stopTime="0.00" timeLoss="10.44" rerouteNo="0" devices="tripinfo_37 fcd_37" vType="DEFAULT_VEHTYPE" speedFactor="1.18" vaporized=""/>
    <tripinfo id="39" depart="780.00" departLane="B2B1_0" departPos="5.10" departSpeed="0.00" departDelay="0.00" arrival="818.00" arrivalLane="B1C1_0" arrivalPos="185.60" arrivalSpeed="11.96" duration="38.00" routeLength="380.30" waitingTime="0.00" waitingCount="0" stopTime="0.00" timeLoss="5.87" rerouteNo="0" devices="tripinfo_39 fcd_39" vType="DEFAULT_VEHTYPE" speedFactor="0.90" vaporized=""/>
    <tripinfo id="38" depart="760.00" departLane="E2E1_0" departPos="5.10" departSpeed="0.00" departDelay="0.00" arrival="824.00" arrivalLane="C1C2_0" arrivalPos="185.60" arrivalSpeed="14.54" duration="64.00" routeLength="769.76" waitingTime="0.00" waitingCount="0" stopTime="0.00" timeLoss="12.37" rerouteNo="0" devices="tripinfo_38 fcd_38" vType="DEFAULT_VEHTYPE" speedFactor="1.10" vaporized=""/>
    <tripinfo id="35" depart="700.00" departLane="B1A1_0" departPos="5.10" departSpeed="0.00" departDelay="0.00" arrival="833.00" arrivalLane="E3D3_0" arrivalPos="185.60" arrivalSpeed="13.71" duration="133.00" routeLength="1560.03" waitingTime="0.00" waitingCount="0" stopTime="0.00" timeLoss="20.46" rerouteNo="0" devices="tripinfo_35 fcd_35" vType="DEFAULT_VEHTYPE" speedFactor="1.02" vaporized=""/>
    <tripinfo id="36" depart="720.00" departLane="E1E0_0" departPos="5.10" departSpeed="0.00" departDelay="0.00" arrival="854.00" arrivalLane="B3B2_0" arrivalPos="185.60" arrivalSpeed="13.12" duration="134.00" routeLength="1570.90" waitingTime="0.00" waitingCount="0" stopTime="0.00" timeLoss="15.52" rerouteNo="0" devices="tripinfo_36 fcd_36" vType="DEFAULT_VEHTYPE" speedFactor="0.97" vaporized=""/>
    <tripinfo id="40" depart="800.00" departLane="C3C4_0" departPos="5.10" departSpeed="0.00" departDelay="0.00" arrival="880.00" arrivalLane="B2B1_0" arrivalPos="185.60" arrivalSpeed="13.19" duration="80.00" routeLength="980.09" waitingTime="0.00" waitingCount="0" stopTime="0.00" timeLoss="9.20" rerouteNo="0" devices="tripinfo_40 fcd_40" vType="DEFAULT_VEHTYPE" speedFactor="1.03" vaporized=""/>
    <tripinfo id="42" depart="840.00" departLane="C0B0_0" departPos="5.10" departSpeed="0.00" departDelay="0.00" arrival="889.00" arrivalLane="B1B0_0" arrivalPos="185.60" arrivalSpeed="15.11" duration="49.00" routeLength="565.40" waitingTime="0.00" waitingCount="0" stopTime="0.00" timeLoss="9.62" rerouteNo="0" devices="tripinfo_42 fcd_42" vType="DEFAULT_VEHTYPE" speedFactor="1.09" vaporized=""/>
    <tripinfo id="43" depart="860.00" departLane="E4E3_0" departPos="5.10" departSpeed="0.00" departDelay="0.00" arrival="943.00" arrivalLane="C2C3_0" arrivalPos="185.60" arrivalSpeed="13.13" duration="83.00" routeLength="973.76" waitingTime="0.00" waitingCount="0" stopTime="0.00" timeLoss="13.79" rerouteNo="0" devices="tripinfo_43 fcd_43" vType="DEFAULT_VEHTYPE" speedFactor="1.04" vaporized=""/>
    <tripinfo id="44" depart="880.00" departLane="A2B2_0" departPos="5.10" departSpeed="0.00" departDelay="0.00" arrival="946.00" arrivalLane="A1A2_0" arrivalPos="185.60" arrivalSpeed="13.74" duration="66.00" routeLength="764.39" waitingTime="0.00" waitingCount="0" stopTime="0.00" timeLoss="11.76" rerouteNo="0" devices="tripinfo_44 fcd_44" vType="DEFAULT_VEHTYPE" speedFactor="1.04" vaporized=""/>
    <tripinfo id="41" depart="821.00" departLane="C4B4_0" departPos="5.10" departSpeed="0.00" departDelay="1.00" arrival="958.00" arrivalLane="E1E2_0" arrivalPos="185.60" arrivalSpeed="13.12" duration="137.00" routeLength="1579.89" waitingTime="0.00" waitingCount="0" stopTime="0.00" timeLoss="15.79" rerouteNo="0" devices="tripinfo_41 fcd_41" vType="DEFAULT_VEHTYPE" speedFactor="0.96" vaporized=""/>
</tripinfos>
